 Gaussian 09, Revision D.01,
 Gaussian 09:  ES64L-G09RevD.01 24-Apr-2013

 -------------------------------------------------
 #p pbe1pbe 6-311g(d) irc=(maxpoints=100, calcall)
 -------------------------------------------------

 ---
 irc
 ---
 Symbolic Z-matrix:
 Charge =  0 Multiplicity = 1

 SCF Done:  E(RPBE1PBE) =  -270.192273435     A.U. after   14 cycles
 SCF Done:  E(RPBE1PBE) =  -270.192805489     A.U. after   13 cycles
 SCF Done:  E(RPBE1PBE) =  -270.194395990     A.U. after   13 cycles
 SCF Done:  E(RPBE1PBE) =  -270.196987718     A.U. after   13 cycles
 SCF Done:  E(RPBE1PBE) =  -270.200479350     A.U. after   13 cycles
 SCF Done:  E(RPBE1PBE) =  -270.204739974     A.U. after   13 cycles
 SCF Done:  E(RPBE1PBE) =  -270.209617921     A.U. after   13 cycles
 SCF Done:  E(RPBE1PBE) =  -270.214942163     A.U. after   13 cycles
 SCF Done:  E(RPBE1PBE) =  -270.220518858     A.U. after   12 cycles
 SCF Done:  E(RPBE1PBE) =  -270.226127404     A.U. after   12 cycles
 SCF Done:  E(RPBE1PBE) =  -270.235131459     A.U. after   11 cycles
 SCF Done:  E(RPBE1PBE) =  -270.235247934     A.U. after   10 cycles
 SCF Done:  E(RPBE1PBE) =  -270.235353041     A.U. after   10 cycles
 SCF Done:  E(RPBE1PBE) =  -270.235447277     A.U. after   11 cycles
 SCF Done:  E(RPBE1PBE) =  -270.235530632     A.U. after   11 cycles
 SCF Done:  E(RPBE1PBE) =  -270.235602614     A.U. after   11 cycles
 SCF Done:  E(RPBE1PBE) =  -270.235662533     A.U. after   11 cycles
 SCF Done:  E(RPBE1PBE) =  -270.235663677     A.U. after    9 cycles
 SCF Done:  E(RPBE1PBE) =  -270.235710024     A.U. after   11 cycles
 SCF Done:  E(RPBE1PBE) =  -270.235711236     A.U. after    9 cycles

                          Input orientation:
 ---------------------------------------------------------------------
 Center     Atomic      Atomic             Coordinates (Angstroms)
 Number     Number       Type             X           Y           Z
 ---------------------------------------------------------------------
      1          6           0       -1.819360    1.676883    0.618874
      2          6           0       -1.443346    0.706534   -0.204977
      3          1           0       -0.896169   -0.680153    1.338133
      4          6           0        2.550377   -0.355218   -0.450349
      5          1           0        1.165648    0.320714    1.001639
      6          1           0       -1.646985   -1.422353   -0.083808
      7          6           0        1.352684   -0.288851    0.117946
      8          1           0       -1.471929    0.858548   -1.282784
      9          6           0       -0.961195   -0.635856    0.242285
     10          1           0       -1.789388    1.550968    1.698847
     11          1           0       -2.179898    2.632161    0.250770
     12          8           0        0.285801   -0.985030   -0.341387
     13          1           0        2.721488   -0.957144   -1.335719
     14          1           0        3.381605    0.191442   -0.024264
 ---------------------------------------------------------------------

 Alpha  occ. eigenvalues --  -19.22703 -10.28178 -10.26848 -10.23408 -10.22803
 Alpha  occ. eigenvalues --  -10.19539  -1.09731  -0.82913  -0.77942  -0.70517
 Alpha  occ. eigenvalues --   -0.60531  -0.58986  -0.53451  -0.49830  -0.48069
 Alpha  occ. eigenvalues --   -0.45948  -0.42270  -0.39845  -0.39668  -0.35491
 Alpha  occ. eigenvalues --   -0.34481  -0.29102  -0.23556
 Alpha virt. eigenvalues --    0.00046   0.03772   0.06392   0.07755   0.09079
 Alpha virt. eigenvalues --    0.09594   0.11379   0.13607   0.14110   0.15436
 Alpha virt. eigenvalues --    0.16563   0.24016   0.26915   0.30700   0.31797

 Mulliken charges:
               1
     1  C   -0.431001
     2  C   -0.197864
     3  H    0.219969
     4  C   -0.535648
     5  H    0.200334
     6  H    0.236963
     7  C    0.016582
     8  H    0.217503
     9  C   -0.316716
    10  H    0.217633
    11  H    0.228736
    12  O   -0.299247
    13  H    0.223592
    14  H    0.219163
 Sum of Mulliken charges =   0.00000

 Dipole moment (field-independent basis, Debye):
    X=             -1.2421    Y=              0.8729    Z=              0.9706  Tot=              1.8019
 Quadrupole moment (field-independent basis, Debye-Ang):
   XX=            -36.7058   YY=            -37.7731   ZZ=            -35.4417
   XY=              0.7111   XZ=              0.1691   YZ=              0.5777

  Exact polarizability:   0.000   0.000   0.000   0.000   0.000   0.000
 Approx polarizability:  87.337  -6.462  73.621 -14.333  14.996  74.523

 Normal termination of Gaussian 09 at Mon Oct  3 17:42:33 2022.
